# vtk DataFile Version 4.2
written by meshio v4.0.10
ASCII
DATASET UNSTRUCTURED_GRID
POINTS 755 double
3.0 0.0 0.0 3.0 2.0 0.0 0.0 2.0 0.0 0.0 0.0 0.0 3.0 0.0999999999997993 0.0 3.0 0.1999999999996293 0.0 3.0 0.2999999999994072 0.0 3.0 0.3999999999991157 0.0 3.0 0.4999999999988242 0.0 3.0 0.5999999999985328 0.0 3.0 0.6999999999982413 0.0 3.0 0.7999999999979498 0.0 3.0 0.8999999999976585 0.0 3.0 0.9999999999973885 0.0 3.0 1.09999999999763 0.0 3.0 1.199999999997894 0.0 3.0 1.299999999998157 0.0 3.0 1.39999999999842 0.0 3.0 1.499999999998683 0.0 3.0 1.599999999998947 0.0 3.0 1.69999999999921 0.0 3.0 1.799999999999474 0.0 3.0 1.899999999999737 0.0 2.900000000001199 2.0 0.0 2.800000000002174 2.0 0.0 2.700000000001933 2.0 0.0 2.600000000002023 2.0 0.0 2.500000000003165 2.0 0.0 2.400000000003 2.0 0.0 2.300000000002719 2.0 0.0 2.200000000002438 2.0 0.0 2.100000000002157 2.0 0.0 2.000000000001934 2.0 0.0 1.900000000002364 2.0 0.0 1.800000000002824 2.0 0.0 1.700000000003284 2.0 0.0 1.600000000003743 2.0 0.0 1.500000000004159 2.0 0.0 1.400000000003922 2.0 0.0 1.300000000003642 2.0 0.0 1.200000000003361 2.0 0.0 1.100000000003082 2.0 0.0 1.000000000002801 2.0 0.0 0.900000000002521 2.0 0.0 0.8000000000022411 2.0 0.0 0.7000000000019608 2.0 0.0 0.600000000001681 2.0 0.0 0.5000000000014007 2.0 0.0 0.4000000000011208 2.0 0.0 0.30000000000084 2.0 0.0 0.2000000000005602 2.0 0.0 0.1000000000002803 2.0 0.0 0.0 1.899999999999584 0.0 0.0 1.799999999999167 0.0 0.0 1.699999999999306 0.0 0.0 1.6 0.0 0.0 1.500000000000693 0.0 0.0 1.400000000001387 0.0 0.0 1.30000000000208 0.0 0.0 1.200000000002774 0.0 0.0 1.100000000003467 0.0 0.0 1.000000000004117 0.0 0.0 0.9000000000037447 0.0 0.0 0.8000000000033287 0.0 0.0 0.7000000000029127 0.0 0.0 0.6000000000024965 0.0 0.0 0.5000000000020806 0.0 0.0 0.4000000000016644 0.0 0.0 0.3000000000012482 0.0 0.0 0.200000000000832 0.0 0.0 0.100000000000416 0.0 0.09999999999955492 0.0 0.0 0.1999999999991203 0.0 0.0 0.2999999999987617 0.0 0.0 0.3999999999983593 0.0 0.0 0.4999999999978253 0.0 0.0 0.5999999999974546 0.0 0.0 0.6999999999970983 0.0 0.0 0.799999999996742 0.0 0.0 0.8999999999963859 0.0 0.0 0.9999999999960294 0.0 0.0 1.099999999995673 0.0 0.0 1.199999999995317 0.0 0.0 1.299999999994961 0.0 0.0 1.399999999994604 0.0 0.0 1.499999999994291 0.0 0.0 1.599999999994632 0.0 0.0 1.699999999995016 0.0 0.0 1.799999999995399 0.0 0.0 1.899999999995782 0.0 0.0 1.999999999996166 0.0 0.0 2.099999999996549 0.0 0.0 2.199999999996932 0.0 0.0 2.299999999997316 0.0 0.0 2.3999999999977 0.0 0.0 2.499999999998083 0.0 0.0 2.599999999998466 0.0 0.0 2.69999999999885 0.0 0.0 2.799999999999233 0.0 0.0 2.899999999999617 0.0 0.0 1.850000000002594 1.913397459621954 0.0 1.049999999995864 0.08660254037835415 0.0 1.549999999994573 0.08660254037850745 0.0 1.250000000003502 1.913397459621314 0.0 1.949999999995641 0.08660254037876991 0.0 0.1009331283965538 1.045623441810686 0.0 2.899233236731843 1.045453129757228 0.0 0.8500000000023604 1.913397459621344 0.0 2.254328976005787 1.910198962695811 0.0 0.0866025403788041 0.6500000000027046 0.0 2.349999999996867 0.08660254037948563 0.0 2.913397459621809 0.649999999998387 0.0 0.6499999999968107 0.08660254037770956 0.0 0.08979485504596703 1.444478290112431 0.0 2.915489299128248 1.349999999998207 0.0 1.550000000003951 1.913397459621935 0.0 0.5500000000015408 1.913397459621314 0.0 2.545995642672378 1.91617972481014 0.0 0.0866025403787519 0.3500000000014197 0.0 2.649999999996557 0.08660254037959277 0.0 2.920339698329459 1.655847549351305 0.0 2.911086995473517 0.3486898463891693 0.0 0.3490798000976188 0.08885430207183562 0.0 0.3543289760042824 1.910198962694869 0.0 0.07914278863086957 0.8478099186216399 0.0 1.749999999995149 0.08660254037866962 0.0 2.14999999999674 0.08660254037877584 0.0 2.050000000002045 1.913397459621646 0.0 1.349999999994806 0.08660254037818917 0.0 1.045995642672526 1.916179724809054 0.0 0.8499999999963129 0.08660254037794486 0.0 2.920857211367857 0.8478099186169992 0.0 0.0866025403778432 1.250000000002427 0.0 0.07966030166722154 1.655847549350436 0.0 2.748649284787997 1.904922119142746 0.0 0.0843696304418395 0.1538675134602332 0.0 0.08481639999414453 1.850162863463252 0.0 2.846132486538096 0.08436963044254142 0.0 2.915188198221007 1.850155807896678 0.0 1.649999999994898 0.08660254037867816 0.0 1.699999999994906 0.1732050807572008 0.0 1.799999999995103 0.1732050807573094 0.0 1.749999999994938 0.2598076211358164 0.0 1.849999999995004 0.2598076211359487 0.0 1.799999999994864 0.3464101615143828 0.0 1.899999999994904 0.3464101615145296 0.0 1.849999999994748 0.4330127018929222 0.0 1.749999999994745 0.4330127018927863 0.0 1.799999999994611 0.5196152422713003 0.0 1.699999999994642 0.5196152422711557 0.0 1.749999999994491 0.606217782649634 0.0 1.649999999994555 0.6062177826494906 0.0 1.699999999994396 0.6928203230279422 0.0 1.599999999994475 0.6928203230278035 0.0 1.799999999994316 0.6928203230280998 0.0 1.749999999994232 0.7794228634063833 0.0 1.849999999994126 0.7794228634065468 0.0 1.799999999994053 0.8660254037848112 0.0 1.899999999993922 0.8660254037849723 0.0 1.849999999993857 0.9526279441632233 0.0 1.949999999993711 0.9526279441633745 0.0 1.749999999993989 0.9526279441630631 0.0 1.999999999993774 0.8660254037851433 0.0 2.049999999993553 0.9526279441635312 0.0 1.799999999993797 1.03923048454148 0.0 1.699999999993899 1.039230484541309 0.0 2.099999999993614 0.8660254037853131 0.0 2.149999999993383 0.9526279441636939 0.0 2.099999999993321 1.039230484541904 0.0 1.749999999993725 1.12583302491974 0.0 1.649999999993806 1.125833024919571 0.0 2.199999999993148 1.039230484542068 0.0 2.149999999993093 1.12583302492029 0.0 2.199999999993443 0.866025403785484 0.0 1.699999999993647 1.212435565298022 0.0 1.599999999993723 1.212435565297874 0.0 1.549999999993872 1.125833024919397 0.0 1.49999999999377 1.212435565297728 0.0 1.449999999993916 1.125833024919235 0.0 1.399999999993797 1.212435565297579 0.0 1.349999999993944 1.12583302491908 0.0 1.29999999999382 1.212435565297424 0.0 1.249999999993969 1.125833024918924 0.0 1.199999999993841 1.212435565297271 0.0 1.149999999993989 1.125833024918771 0.0 1.09999999999386 1.212435565297114 0.0 1.049999999994014 1.12583302491861 0.0 1.099999999994134 1.039230484540282 0.0 0.9999999999941744 1.039230484540127 0.0 0.9499999999940228 1.125833024918408 0.0 1.049999999994282 0.9526279441618086 0.0 0.9499999999943374 0.95262794416165 0.0 0.9999999999944433 0.8660254037833346 0.0 0.899999999994503 0.8660254037831843 0.0 2.249999999992942 1.125833024920458 0.0 0.9499999999946073 0.7794228634048734 0.0 0.8499999999946624 0.7794228634047148 0.0 0.7999999999945452 0.8660254037830302 0.0 0.7499999999946999 0.7794228634045666 0.0 2.199999999992871 1.212435565298706 0.0 1.549999999994628 0.6062177826493642 0.0 0.6999999999946122 0.866025403782889 0.0 2.299999999992723 1.212435565298851 0.0 1.449999999993652 1.299038105676021 0.0 1.149999999993718 1.299038105675629 0.0 2.249999999992701 1.299038105677191 0.0 0.7999999999948081 0.6928203230262231 0.0 0.6999999999948342 0.6928203230260888 0.0 2.349999999992567 1.299038105677314 0.0 2.349999999992809 1.125833024920591 0.0 1.949999999994776 0.4330127018930761 0.0 2.149999999992759 1.299038105676982 0.0 1.04999999999453 0.7794228634050331 0.0 0.7499999999949376 0.6062177826477462 0.0 0.6499999999949578 0.6062177826475983 0.0 2.199999999992602 1.3856406460555 0.0 2.099999999992631 1.385640646055289 0.0 1.499999999994555 0.6928203230276742 0.0 1.449999999994708 0.606217782649239 0.0 2.14999999999243 1.472243186433765 0.0 2.049999999992486 1.472243186433561 0.0 0.8499999999949105 0.6062177826479134 0.0 1.049999999993721 1.299038105675473 0.0 1.099999999993585 1.385640646054007 0.0 0.9999999999935669 1.385640646053857 0.0 1.049999999993448 1.472243186432306 0.0 0.9499999999934143 1.471772838027049 0.0 1.149999999993475 1.472243186432338 0.0 0.8999999999935492 1.385562254652801 0.0 0.8499999999933908 1.471974508421693 0.0 0.7999999999935411 1.385582801151639 0.0 0.749999999993405 1.471718417541361 0.0 0.6999999999935632 1.385543543754684 0.0 0.6499999999934534 1.472139541233496 0.0 0.5999999999936354 1.385607188137137 0.0 0.5499999999935613 1.472220335912455 0.0 0.4999999999937859 1.385631261313919 0.0 0.549999999993819 1.299030965232377 0.0 0.7999999999949743 0.5196152422694195 0.0 0.8999999999949574 0.519615242269599 0.0 1.649999999994808 0.2598076211356927 0.0 2.149999999993671 0.779422863407093 0.0 2.249999999993521 0.7794228634072679 0.0 1.14999999999427 0.9526279441619551 0.0 2.249999999992416 1.472243186434019 0.0 0.5999999999948443 0.6928203230259525 0.0 0.5499999999949868 0.6062177826474459 0.0 0.4999999999948404 0.6928203230258021 0.0 1.649999999993532 1.299038105676276 0.0 2.199999999993742 0.6928203230288696 0.0 2.299999999993629 0.6928203230290497 0.0 2.349999999993383 0.7794228634074513 0.0 2.399999999993472 0.6928203230292166 0.0 2.349999999993776 0.6062177826508326 0.0 2.449999999993596 0.606217782650971 0.0 2.449999999993234 0.7794228634076413 0.0 2.399999999993851 0.5196152422725417 0.0 2.499999999993732 0.5196152422726763 0.0 0.5999999999950957 0.5196152422690503 0.0 0.4999999999951035 0.5196152422689342 0.0 0.4499999999937375 1.472237813888274 0.0 0.6956710239901911 1.56193948805472 0.0 2.549999999993497 0.6062177826511492 0.0 0.4499999999940313 1.299035351477817 0.0 0.4999999999940163 1.212433916190051 0.0 0.599999999993969 1.21243410037166 0.0 0.5499999999951617 0.433012701890523 0.0 0.4506569860362966 0.4326333908227289 0.0 1.399999999994639 0.6928203230275116 0.0 1.349999999994794 0.6062177826490873 0.0 1.399999999994862 0.5196152422708058 0.0 1.299999999994954 0.5196152422706563 0.0 2.449999999993905 0.4330127018941897 0.0 2.349999999994088 0.4330127018940813 0.0 2.549999999993875 0.4330127018943511 0.0 0.4999999999934918 1.558841022966026 0.0 1.004328975997949 1.561965832336468 0.0 2.199999999992243 1.558845726812219 0.0 2.299999999992129 1.558845726812465 0.0 0.3999999999941992 1.212434831412633 0.0 0.4499
[...]
POINT_DATA 755
FIELD FieldData 1
Displacements_FEM 3 755 float
5.1617604185594246e-05 0.0 0.0 0.0003679771034512669 -0.0008091873023658991 0.0 0.0 0.0 0.0 0.0 0.0 0.0 -4.168592204223387e-05 -0.00010321706940885633 0.0 -7.133038889151067e-05 -0.000165567675139755 0.0 -8.049899042816833e-05 -0.00021278491476550698 0.0 -8.022547990549356e-05 -0.0002452483167871833 0.0 -7.472371362382546e-05 -0.0002719577751122415 0.0 -6.739660602761433e-05 -0.0002938722027465701 0.0 -5.807177512906492e-05 -0.00031358504202216864 0.0 -4.738029747386463e-05 -0.0003318516828585416 0.0 -3.561870471457951e-05 -0.00034947809763252735 0.0 -2.3093269192031585e-05 -0.00036698998883366585 0.0 -9.552966730552725e-06 -0.00038474699249491096 0.0 5.0186336011392996e-06 -0.0004036157042719424 0.0 2.1001576897106133e-05 -0.00042406137799844146 0.0 3.84931881853845e-05 -0.0004470007843337953 0.0 5.8528708905214444e-05 -0.0004736106493510306 0.0 8.23355294414796e-05 -0.0005049737519584596 0.0 0.00011195463594049215 -0.0005459550302475691 0.0 0.0001525435218354687 -0.0006022902671247721 0.0 0.0002216721186414361 -0.0006822343566454947 0.0 0.00033756025368347764 -0.0005609969375655055 0.0 0.00029141796403564513 -0.0004597857769113034 0.0 0.00025897115119732916 -0.00039863988058641553 0.0 0.00023333200078923255 -0.00035501294769346714 0.0 0.00021332554752007127 -0.0003211319271940738 0.0 0.0001974029146367684 -0.000293426972348243 0.0 0.00018424414156470448 -0.00026961779803968966 0.0 0.00017326328088529408 -0.0002486584708094597 0.0 0.00016390094242524356 -0.00022986352269072086 0.0 0.00015575402358081192 -0.00021279652719385922 0.0 0.00014867763093207031 -0.00019700020493473858 0.0 0.00014242122415453196 -0.00018195757002104074 0.0 0.0001368908997392282 -0.00016773199604358524 0.0 0.0001318220020039007 -0.00015391634951811284 0.0 0.00012710821465589106 -0.00014066918811295182 0.0 0.00012271010200493038 -0.00012779812095686793 0.0 0.00011846254346892238 -0.00011515425285324454 0.0 0.00011428313882788643 -0.00010286275210091844 0.0 0.00011012796312570572 -9.087593207368627e-05 0.0 0.00010590426245471463 -7.911638385849074e-05 0.0 0.00010154794290428981 -6.762311386410147e-05 0.0 9.696018241811544e-05 -5.639955634251237e-05 0.0 9.202466753777117e-05 -4.5468888856703416e-05 0.0 8.658598380861804e-05 -3.483608816168271e-05 0.0 8.03777074906975e-05 -2.4573224436608143e-05 0.0 7.296592957573012e-05 -1.4880932212690823e-05 0.0 6.371022027451545e-05 -6.039323125150986e-06 0.0 5.121578578837216e-05 1.3598795476355008e-06 0.0 3.343110074638389e-05 4.720419838122325e-06 0.0 4.282254303689115e-05 -3.569939963199431e-06 0.0 5.1726707170018926e-05 1.4798711163166445e-06 0.0 5.217064608586952e-05 6.041212145646568e-06 0.0 4.8437665100209415e-05 9.418732588528655e-06 0.0 4.253024599165656e-05 1.1707407793437596e-05 0.0 3.5350352845853195e-05 1.3529418538382743e-05 0.0 2.728501203819178e-05 1.484948461438762e-05 0.0 1.8691076547838748e-05 1.572859582665842e-05 0.0 9.743020200403407e-06 1.6209984096349217e-05 0.0 6.565332455465978e-07 1.6325360775226727e-05 0.0 -8.451819667243399e-06 1.610243270988576e-05 0.0 -1.739989784255158e-05 1.5513451216975227e-05 0.0 -2.6028430511360057e-05 1.4573920452676248e-05 0.0 -3.410398858250119e-05 1.3227682757133152e-05 0.0 -4.140718374401331e-05 1.1411138075345661e-05 0.0 -4.74026492156554e-05 9.017885531648062e-06 0.0 -5.127523763803765e-05 5.7881916291080415e-06 0.0 -5.113812585477717e-05 1.5194804063867196e-06 0.0 -4.257775071891956e-05 -3.5888106140191667e-06 0.0 -3.315242429380305e-05 4.362111667433055e-06 0.0 -5.100580528960563e-05 5.311268864716112e-07 0.0 -6.409463821910322e-05 -7.072835160215618e-06 0.0 -7.316182018257678e-05 -1.6312786101480015e-05 0.0 -8.056739170569927e-05 -2.666180080268532e-05 0.0 -8.661403990117833e-05 -3.736785220098682e-05 0.0 -9.189143747789785e-05 -4.869030090048909e-05 0.0 -9.655955363996327e-05 -6.041225424269214e-05 0.0 -0.00010074127203552052 -7.252897194121033e-05 0.0 -0.0001044956807163544 -8.502966375090182e-05 0.0 -0.00010784229380078614 -9.790316107682884e-05 0.0 -0.0001107730931835249 -0.00011113224900327623 0.0 -0.00011325866216793656 -0.00012469007924664766 0.0 -0.0001152512850239873 -0.00013853701238986105 0.0 -0.00011668659863062203 -0.00015261632506735623 0.0 -0.00011748394899768755 -0.00016684985894244164 0.0 -0.00011754662409657612 -0.00018113222904503345 0.0 -0.00011676121357595548 -0.00019532436272129416 0.0 -0.00011499635729705915 -0.00020924495765939355 0.0 -0.00011210041702724993 -0.00022265827283263206 0.0 -0.00010789725638460368 -0.0002352600422454998 0.0 -0.00010217710951110348 -0.000246654060902074 0.0 -9.467884956393391e-05 -0.00025631641619838774 0.0 -8.505416917614639e-05 -0.0002635289856698364 0.0 -7.279719284269959e-05 -0.0002672479604370892 0.0 -5.7108311011688784e-05 -0.00026580473058857024 0.0 -3.6660934711107984e-05 -0.0002561444416642189 0.0 -9.288485671277158e-06 -0.00023152299399953336 0.0 2.7334041078574955e-05 -0.00017498516535852104 0.0 0.00013186558499000967 -0.00018803913553711027 0.0 -9.541743929730728e-05 -9.072829561773688e-05 0.0 -0.00010542031668592244 -0.00015953188994899392 0.0 0.0001056823311955668 -0.00010809990635607392 0.0 -0.00010310476500308141 -0.0002165529876947403 0.0 4.822901246370748e-06 7.5128896241949406e-06 0.0 -2.126823710568715e-05 -0.00036061700666323304 0.0 8.98129292181693e-05 -6.103918713051826e-05 0.0 0.00015843672736082226 -0.00025762704899534583 0.0 -3.0363165933522396e-05 7.325687874981668e-06 0.0 -8.589025674154982e-05 -0.0002619679144117981 0.0 -6.670911534456536e-05 -0.0002976604737341404 0.0 -8.015597268240526e-05 -4.1942224925151095e-05 0.0 3.8942238461459056e-05 6.810375452914741e-06 0.0 2.513806612114422e-05 -0.00041789119131863117 0.0 0.0001176692676381208 -0.0001462521031498909 0.0 7.553377508884296e-05 -2.8457365260692313e-05 0.0 0.00019008903473149985 -0.0003326678415760398 0.0 -5.0063521484844387e-05 4.897939106740523e-06 0.0 -6.069883602322079e-05 -0.00026519745006226003 0.0 9.14729098440148e-05 -0.0004942162777297199 0.0 -8.70146177476272e-05 -0.0002366669796174392 0.0 -6.267039134399965e-05 -9.780513209989294e-06 0.0 6.329685129458085e-05 -9.120603863266297e-06 0.0 -1.3244535693957005e-05 9.021096957440022e-06 0.0 -0.0001057432236848399 -0.0001883695222204551 0.0 -9.675035107648e-05 -0.00024217319150920957 0.0 0.000143822529935278 -0.0002195324923377484 0.0 -0.00010276974353473634 -0.0001311570667894557 0.0 9.809606854105368e-05 -8.364715176867321e-05 0.0 -8.859669469529763e-05 -6.55682451906614e-05 0.0 -4.5145679905544966e-05 -0.0003313539200462401 0.0 2.31791509577306e-05 8.244816854130477e-06 0.0 5.1245860959170386e-05 5.43632086191792e-06 0.0 0.0002070194750558585 -0.0004208193568047136 0.0 -4.928680573357269e-05 5.593696641881252e-06 0.0 4.9414720706408843e-05 6.0489746829262e-06 0.0 -4.500451541389339e-05 -0.00021563693007919937 0.0 0.00017193093663081527 -0.000554668833501637 0.0 -0.000105908969999291 -0.00017394829774275422 0.0 -9.546165529172868e-05 -0.0001810854155337438 0.0 -9.534866694593802e-05 -0.00019558172789402306 0.0 -8.615885599283502e-05 -0.00018812617054209113 0.0 -8.634987898403779e-05 -0.00020261383906472474 0.0 -7.791788812028244e-05 -0.00019495782908052206 0.0 -7.860577170504257e-05 -0.00020934749045409262 0.0 -7.055915921228006e-05 -0.00020151060016360134 0.0 -6.922564352862537e-05 -0.00018697621999308467 0.0 -6.19851125520654e-05 -0.00019336010154802352 0.0 -6.020854925736785e-05 -0.0001787636720109731 0.0 -5.2891420637024567e-05 -0.00018499171710573137 0.0 -5.085032171336934e-05 -0.0001704094756860286 0.0 -4.331465970608406e-05 -0.0001764947228366509 0.0 -4.116697527933866e-05 -0.00016199822130147368 0.0 -4.565313065540977e-05 -0.00019104783132206649 0.0 -3.566041050362401e-05 -0.00018245239334646612 0.0 -3.825276144198142e-05 -0.00019700768461916596 0.0 -2.7676134777721018e-05 -0.00018835447554010898 0.0 -3.0449700716417283e-05 -0.00020298104209359735 0.0 -1.91522813111078e-05 -0.0001942956878338009 0.0 -2.2017133233021013e-05 -0.00020909907470922917 0.0 -1.6572363165323623e-05 -0.00017966306768357754 0.0 -3.3465919841546565e-05 -0.0002176089765271172 0.0 -2.5113127776421607e-05 -0.000224022995098494 0.0 -7.316125447687227e-06 -0.00018556206487119198 0.0 -5.064171091362368e-06 -0.0001710359356366098 0.0 -3.665818439912982e-05 -0.00023212627274915576 0.0 -2.8339962227619253e-05 -0.00023900724772829562 0.0 -1.582281583978329e-05 -0.0002309171250090003 0.0 4.913348675472662e-06 -0.00017690246750134975 0.0 6.71182442602003e-06 -0.00016257326933555305 0.0 -1.898196387628559e-05 -0.0002466368896421045 0.0 -5.425239123724168e-06 -0.0002384455146966502 0.0 -3.99106829718221e-05 -0.0002464001008775085 0.0 1.7372445654473267e-05 -0.00016843508637975901 0.0 1.86071265488863e-05 -0.00015436579997185618 0.0 8.179433280020021e-06 -0.00014859437942504883 0.0 1.952557431650348e-05 -0.00014066936273593456 0.0 9.340295036963653e-06 -0.00013495491293724626 0.0 2.0160257918178104e-05 -0.00012732300092466176 0.0 1.0226364793197718e-05 -0.00012165583757450804 0.0 2.054813376162201e-05 -0.0001143201079685241 0.0 1.0873798601096496e-05 -0.00010870842379517853 0.0 2.072869574476499e-05 -0.00010166750143980607 0.0 1.1320827979943715e-05 -9.61335317697376e-05 0.0 2.074338226520922e-05 -8.938356040744111e-05 0.0 1.1606543012021575e-05 -8.396026532864198e-05 0.0 2.3671695998928044e-06 -9.065763151738793e-05 0.0 2.8659426334343152e-06 -7.860395999159664e-05 0.0 1.1770289347623475e-05 -7.222554995678365e-05 0.0 -6.209240382304415e-06 -8.519982657162473e-05 0.0 -5.545889052882558e-06 -7.327085040742531e-05 0.0 -1.4473290320893284e-05 -7.972543244250119e-05 0.0 -1.3679023140866775e-05 -6.792259955545887e-05 0.0 -8.44886562845204e-06 -0.0002551901270635426 0.0 -2.2471171178040095e-05 -7.420861220452935e-05 0.0 -2.1559981178143062e-05 -6.253017636481673e-05 0.0 -1.3027623026573565e-05 -5.6659609981579706e-05 0.0 -2.0805066014872864e-05 -5.141621295479126e-05 0.0 6.237092293304158e-06 -0.00024673217558301985 0.0 -4.892448123428039e-05 -0.0001559066295158118 0.0 -1.2515918569988571e-05 -4.5976881665410474e-05 0.0 3.3833375709946267e-06 -0.0002648020745255053 0.0 3.076799839618616e-05 -0.00013308417692314833 0.0 3.035274494322948e-05 -9.491808305028826e-05 0.0 1.9336041077622212e-05 -0.00025586882838979363 0.0 -2.918711834354326e-05 -5.707716627512127e-05 0.0 -2.832055361068342e-05 -4.6105284127406776e-05 0.0 1.666209936956875e-05 -0.00027557293651625514 0.0 -1.131194039771799e-05 -0.00027260888600721955 0.0 -7.18554001650773e-05 -0.00021572811238002032 0.0 2.18901095649926e-05 -0.00023761644843034446 0.0 -2.3530161342932843e-05 -8.640558371553198e-05 0.0 -3.652739178505726e-05 -5.156213592272252e-05 0.0 -3.551094050635584e-05 -4.0725084545556456e-05 0.0 3.634655513451435e-05 -0.00024625708465464413 0.0 3.825125168077648e-05 -0.0002282219793414697 0.0 -3.919427399523556e-05 -0.0001476618053857237 0.0 -4.70962913823314e-05 -0.00014158673002384603 0.0 5.4033444030210376e-05 -0.0002364565007155761 0.0 5.49451942788437e-05 -0.00021891723736189306 0.0 -3.77323740394786e-05 -6.300710811046883e-05 0.0 2.9909399017924443e-05 -8.289208926726133e-05 0.0 3.966983058489859e-05 -8.845623233355582e-05 0.0 3.8748199585825205e-05 -7.664809527341276e-05 0.0 4.8614481784170493e-05 -8.227058424381539e-05 0.0 4.715125396614894e-05 -7.063793600536883e-05 0.0 4.9986494559561834e-05 -9.422555740457028e-05 0.0 3.7783593143103644e-05 -6.521215254906565e-05 0.0 4.572785474010743e-05 -5.9371624956838787e-05 0.0 3.684789771796204e-05 -5.4206757340580225e-05 0.0 4.4355361751513556e-05 -4.8511254135519266e-05 0.0 3.599145566113293e-05 -4.367229848867282e-05 0.0 4.315964906709269e-05 -3.8130903703859076e-05 0.0 3.5288809158373624e-05 -3.368793841218576e-05 0.0 4.215099761495367e-05 -2.8317843316472135e-05 0.0 3.479000224615447e-05 -2.433443660265766e-05 0.0 2.7548259822651744e-05 -2.9517363145714626e-05 0.0 -4.496015390031971e-05 -5.734114529332146e-05 0.0 -4.6539724280592054e-05 -6.92333560436964e-05 0.0 -8.559924754081294e-05 -0.00017350850976072252 0.0 -4.727701161755249e-05 -0.00023967308516148478 0.0 -5.0460472266422585e-05 -0.00025295664090663195 0.0 -7.024900696706027e-06 -9.759657405083999e-05 0.0 5.267118103802204e-05 -0.0002556301187723875 0.0 -2.76536047749687e-05 -3.5773133276961744e-05 0.0 -3.473177639534697e-05 -3.0570321541745216e-05 0.0 -2.7204894649912603e-05 -2.612634125398472e-05 0.0 2.988387132063508e-05 -0.00016026338562369347 0.0 -5.686470467480831e-05 -0.00024656287860125303 0.0 -5.9908161347266287e-05 -0.0002585829934105277 0.0 -5.3479485359275714e-05 -0.0002654094132594764 0.0 -6.279475928749889e-05 -0.0002692718990147114 0.0 -6.812563515268266e-05 -0.00026322234771214426 0.0 -7.087998528731987e-05 -0.0002718059695325792 0.0 -5.6075841712299734e-05 -0.00027683418011292815 0.0 -7.48839374864474e-05 -0.00026683733449317515 0.0 -7.748314965283498e-05 -0.0002729442494455725 0.0 -4.227120371069759e-05 -3.52902316080872e-05 0.0 -4.131050081923604e-05 -2.5322056899312884e-05 0.0 4.143273690715432e-05 -1.9213288396713324e-05 0.0 5.15784922754392e-05 -4.250628990121186e-05 0.0 -7.328114588744938e-05 -0.00027816504007205367 0.0 2.7382098778616637e-05 -2.0543389837257564e-05 0.0 1.9802113456535153e-05 -2.5478759198449552e-05 0.0 1.9876128135365434e-05 -3.47600580425933e-05 0.0 -4.844541763304733e-05 -2.9834303859388456e-05 0.0 -4.720523065770976e-05 -2.0129098629695363e-05 0.0 -3.73785151168704e-05 -0.00013356635463424027 0.0 -4.535077096079476e-05 -0.0001275288814213127 0.0 -5.5038217396941036e-05 -0.00013538342318497598 0.0 -5.3325384214986116e-05 -0.0001213897776324302 0.0 -7.979488145792857e-05 -0.0002693882561288774 0.0 -7.774707046337426e-05 -0.00026271326350979507 0.0 -8.215693378588185e-05 -0.0002725874073803425 0.0 4.82720643049106e-05 -2.3012422389001586e-05 0.0 5.751483331550844e-05 -7.685811578994617e-05 0.0 7.181261025834829e-05 -0.0002453372871968895 0.0 7.123929390218109e-05 -0.0002657827571965754 0.0 1.9809702280326746e-05 -1.6772626622696407e-05 0.0 1.1985585842921864e-05 -2.1455842215800658e-05 0.0 -6.313107587629929e-05 -0.00012907441123388708 0.0 -6.138595199445263e-05 -0.0001151784454123117 0.0 -5.376863191486336e-05 -6.347097223624587e-05 0.0 -2.9302471375558525e-05 -0.00013949288404546678 0.0 1.5797004380146973e-05 -0.00018291962624061853 0.0 -4.058847116539255e-05 -1.6307498299283907e-05 0.0 4.723330130218528e-05 -1.4175368050928228e-05 0.0 -7.912146247690544e-05 -0.00022327789338305593 0.0 -5.572279042098671e-05 -7.575356721645221e-05 0.0 -4.599643489200389e-06 -5.09868586959783e-05 0.0 -4.819782770937309e-05 -8.162282756529748e-05 0.0 -4.819166861125268e-05 -0.00020552412024699152 0.0 -7.315458788070828e-05 -0.00022936027380637825 0.0 -7.95132145867683e-05 -0.00023643492022529244 0.0 -8.220868039643392e-05 -0.00027080485597252846 0.0 -8.407943096244708e-05 -0.00027057554689235985 0.0 -8.458687807433307e-05 -0.0002716069284360856 0.0 -5.3931922593619674e-05 -2.4173052224796265e-05 0.0 -5.1766586693702266e-05 -1.5019367310742382e-05 0.0 -5.600321674137376e-05 -3.486821515252814e-05 0.0 2.735906127782073e-05 -1.2195378076285124e-05 0.0 5.336151662049815e-05 -1.7819405911723152e-05 0.0 5.1831320888595656e-05 -9.257454621547367e-06 0.0 1.2057753338012844e-05 -1.2917287676827982e-05 0.0 4.095598342246376e-06 -1.738253195071593e-05 0.0 9.18104633456096e-05 -0.0002549629716668278 0.0 9.241592488251626e-05 -0.00027678083279170096 0.0 6.99919619364664e-05 -0.0002889498427975923 0.0 9.218925697496161e-05 -0.0003020737203769386 0.0 6.8090514105279e-05 -0.0003156498132739216 0.0 9.101524483412504e-05 -0.0003319854731671512 0.0 6.569214747287333e-05 -0.0003467120695859194 0.0 9.076953574549407e-05 -0.00023552641505375504 0.0 4.61159143014811e-05 -0.00032805747468955815 0.0 4.399793760967441e-05 -0.0003584935038816184 0.0 2.7132451577926986e-05 -0.00033788717701099813 0.0 8.891997276805341e-05 -0.00036796851782128215 0.0 3.998753527412191e-06 -2.6207359042018652e-05 0.0 -3.9135984479798935e-06 -2.1893933080718853e-05 0.0 -3.822958660748554e-06 -1.3247048627818003e-05 0.0 -7.145817653508857e-05 -0.00012270330626051873 0.0 -6.959267921047285e-05 -0.00010894257138716057 0.0 -3.570257831597701e-05 -0.00011977573012700304 0.0 -6.478714203694835e-05 -0.0001432775752618909 0.0 -2.459888719386072e-06 -0.00022231547336559743 0.0 -1.4297533198259771e-05 -0.0001652441278565675 0.0 -4.5815428165951744e-05 -0.00027362752007320523 0.0 -4.7908833948895335e-05 -0.00028632438625209033 0.0 -6.310561002464965e-05 -6.993657007114962e-05 0.0 3.97724834328983e-05 -0.0002114670496666804 0.0 5.5448501370847225e-05 -0.0002026319707510993 0.0 -2.00322716636947e-07 -0.00012929103104397655 0.0 0.00011737437307601795 -0.0002887365408241749 0.0 4.6665089030284435e-05 -6.441416189773008e-06 0.0 -8.648927178001031e-05 -0.00026448533753864467 0.0 2.6706495191319846e-05 -0.00036760984221473336 0.0 1.1037574040528852e-05 -0.00034460489405319095 0.0 4.382058250484988e-05 -0.000392516958527267 0.0 -8.6343934526667e-05 -0.00026639559655450284 0.0 -8.10776327853091e-05 -0.00027092965319752693 0.0 -1.1758479558920953e-05 -1.7538852262077853e-05 0.0 -1.169889947050251e-05 -9.087539183383342e-06 0.0 -6.53943934594281e-05 -8.25348324724473e-05 0.0 -5.1609698857646435e-05 -0.00010773710528155789 0.0 -6.116644362919033e-05 -2.9552542400779203e-05 0.0 -1.9456487279967405e-05 -1.317751593887806e-05 0.0 -8.007423457456753e-05 -0.00011633089889073744 0.0 -8.19026172393933e-05 -0.00013025441148784012 0.0 -6.0733633290510625e-05 -5.777134720119648e-05 0.0 -8.146230538841337e-05 -0.0002760502102319151 0.0 2.8313281291048042e-05 -4.931797957397066e-05 0.0 -1.1894700037373696e-05 -2.643854713824112e-05 0.0 7.151178579078987e-05 -0.0002100139536196366 0.0 7.083255331963301e-05 -0.0001942617236636579 0.0 8.747570245759562e-05 -0.00020170443167444319 0.0 8.555308158975095e-05 -0.00018647871911525726 0.0 6.989631219767034e-05 -0.0001793789560906589 0.0 8.352842269232497e-05 -0.00017200730508193374 0.0 6.875547842355445e-05 -0.00016515997413080186 0.0 8.142921433318406e-05 -0.00015813579375389963 0.0 6.744046550011262e-05 -0.00015145960787776858 0.0 7.9261590144597e-05 -0.00014472566545009613 0.0 6.597652827622369e-05 -0.0001381688634864986 0.0 7.704776362515986e-05 -0.00013166201824788004 0.0 6.439105345634744e-05 -0.00012521923054009676 0.0 7.477992767235264e-05 -0.00011892579641425982 0.0 9.627101826481521e-05 -0.00016517567564733326 0.0 8.750095730647445e-05 -0.00012553743727039546 0.0 -6.574553844984621e-05 -0.00022178645303938538 0.0 -5.791543298983015e-05 -0.00028713513165712357 0.0 -4.898371844319627e-05 -0.00029834796441718936 0.0 -3.837308395304717e-05 -0.00029799327603541315 0.0 -5.8624100347515196e-05 -0.00029642245499417186 0.0 -3.867229679599404e-05 -0.00031209865119308233 0.0 -2.7598907763604075e-05 -0.00031197909265756607 0.0 -2.7169588065589778e-05 -0.0003283791884314269 0.0 -7.798489968990907e-05 -0.00010274358646711335 0.0 -6.782866694265977e-05 -0.00017232948448508978 0.0 -6.778834358556196e-05 -0.00023510689788963646 0.0 -8.145126048475504e-05 -0.00026912122848443687 0.0 -5.3836778533877805e-05 -0.0002335195167688653 0.0 4.0910232200985774e-05 -0.00019570924632716924 0.0 5.543730003410019e-05 -0.00017269901582039893 0.0 5.54148355149664e-05 -2.735902671702206e-05 0.0 -8.561385766370222e-05 -0.00023030576994642615 0.0 -8.473717753076926e-05 -0.00024287965788971633 0.0 2.614381992316339e-05 -0.00020448016584850848 0.0 5.434731065179221e-05 -0.00014509656466543674 0.0 -7.31021209503524e-05 -7.668398757232353e-05 0.0 1.2063269423379097e-05 -0.00032000456121750176 0.0 -6.433131056837738e-05 -4.061619256390259e-05 0.0 8.454461203655228e-05 -0.00011299637844786048 0.0 7.244176231324673e-05 -0.00010648070747265592 0.0 8.164846076397225e-05 -0.00010069428390124813 0.0 -1.9312410586280748e-05 -5.176394097361481e-06 0.0 -2.6879060897044837e-05 -8.912214980227873e-06 0.0 -3.7382240407168865e-05 -0.0003256560885347426 0.0 1.1469361197669059e-05 -0.00036923011066392064 0.0 6.011