# vtk DataFile Version 4.2
written by meshio v4.0.11
ASCII
DATASET UNSTRUCTURED_GRID
POINTS 748 double
3.0 0.0 0.0 3.0 2.0 0.0 0.0 2.0 0.0 0.0 0.0 0.0 3.0 0.0999999999997993 0.0 3.0 0.1999999999996293 0.0 3.0 0.2999999999994072 0.0 3.0 0.3999999999991157 0.0 3.0 0.4999999999988242 0.0 3.0 0.5999999999985328 0.0 3.0 0.6999999999982413 0.0 3.0 0.7999999999979498 0.0 3.0 0.8999999999976585 0.0 3.0 0.9999999999973885 0.0 3.0 1.09999999999763 0.0 3.0 1.199999999997894 0.0 3.0 1.299999999998157 0.0 3.0 1.39999999999842 0.0 3.0 1.499999999998683 0.0 3.0 1.599999999998947 0.0 3.0 1.69999999999921 0.0 3.0 1.799999999999474 0.0 3.0 1.899999999999737 0.0 2.900000000001199 2.0 0.0 2.800000000002174 2.0 0.0 2.700000000001933 2.0 0.0 2.600000000002023 2.0 0.0 2.500000000003165 2.0 0.0 2.400000000003 2.0 0.0 2.300000000002719 2.0 0.0 2.200000000002438 2.0 0.0 2.100000000002157 2.0 0.0 2.000000000001934 2.0 0.0 1.900000000002364 2.0 0.0 1.800000000002824 2.0 0.0 1.700000000003284 2.0 0.0 1.600000000003743 2.0 0.0 1.500000000004159 2.0 0.0 1.400000000003922 2.0 0.0 1.300000000003642 2.0 0.0 1.200000000003361 2.0 0.0 1.100000000003082 2.0 0.0 1.000000000002801 2.0 0.0 0.900000000002521 2.0 0.0 0.8000000000022411 2.0 0.0 0.7000000000019608 2.0 0.0 0.600000000001681 2.0 0.0 0.5000000000014007 2.0 0.0 0.4000000000011208 2.0 0.0 0.30000000000084 2.0 0.0 0.2000000000005602 2.0 0.0 0.1000000000002803 2.0 0.0 0.0 1.899999999999584 0.0 0.0 1.799999999999167 0.0 0.0 1.699999999999306 0.0 0.0 1.6 0.0 0.0 1.500000000000693 0.0 0.0 1.400000000001387 0.0 0.0 1.30000000000208 0.0 0.0 1.200000000002774 0.0 0.0 1.100000000003467 0.0 0.0 1.000000000004117 0.0 0.0 0.9000000000037447 0.0 0.0 0.8000000000033287 0.0 0.0 0.7000000000029127 0.0 0.0 0.6000000000024965 0.0 0.0 0.5000000000020806 0.0 0.0 0.4000000000016644 0.0 0.0 0.3000000000012482 0.0 0.0 0.200000000000832 0.0 0.0 0.100000000000416 0.0 0.09999999999955492 0.0 0.0 0.1999999999991203 0.0 0.0 0.2999999999987617 0.0 0.0 0.3999999999983593 0.0 0.0 0.4999999999978253 0.0 0.0 0.5999999999974546 0.0 0.0 0.6999999999970983 0.0 0.0 0.799999999996742 0.0 0.0 0.8999999999963859 0.0 0.0 0.9999999999960294 0.0 0.0 1.099999999995673 0.0 0.0 1.199999999995317 0.0 0.0 1.299999999994961 0.0 0.0 1.399999999994604 0.0 0.0 1.499999999994291 0.0 0.0 1.599999999994632 0.0 0.0 1.699999999995016 0.0 0.0 1.799999999995399 0.0 0.0 1.899999999995782 0.0 0.0 1.999999999996166 0.0 0.0 2.099999999996549 0.0 0.0 2.199999999996932 0.0 0.0 2.299999999997316 0.0 0.0 2.3999999999977 0.0 0.0 2.499999999998083 0.0 0.0 2.599999999998466 0.0 0.0 2.69999999999885 0.0 0.0 2.799999999999233 0.0 0.0 2.899999999999617 0.0 0.0 1.812393870014105 1.908711254493856 0.0 1.006377018521772 0.08233781277283564 0.0 1.495520653103993 0.0866023497998604 0.0 1.215368245369891 1.911444280989807 0.0 1.895656255606493 0.08660254421425996 0.0 0.1117119059808344 1.024268170890458 0.0 2.912158216676209 1.07509150365006 0.0 0.8348422681385448 1.881654801125899 0.0 2.239635663584794 1.905350509355202 0.0 0.081969925632183 0.6441920488582535 0.0 2.296930000425752 0.08662085332178233 0.0 2.899574617583075 0.6606283544574275 0.0 0.6637515492381976 0.08778823636020823 0.0 0.08909596246156783 1.429340356078945 0.0 2.908238695684164 1.362258355902628 0.0 1.512692708369399 1.910238021141574 0.0 0.5649958686460257 1.911555280944144 0.0 2.528938830835047 1.911514543612227 0.0 0.08995020291395141 0.3993205988593147 0.0 2.597371811259245 0.0884442389217838 0.0 2.917045107430598 1.660650241096993 0.0 2.918102799519331 0.3759173872396068 0.0 0.380694037797093 0.08053883289187302 0.0 0.3718418933015092 1.909081698113722 0.0 0.08541248560645238 0.8037057529519803 0.0 1.694980856918836 0.08660254114377357 0.0 2.096736939948205 0.08660271003498869 0.0 2.013828475048845 1.89667245876611 0.0 1.29632456080926 0.08655788496180919 0.0 1.031372110149647 1.910029987409933 0.0 0.8371026730985156 0.1089454205593434 0.0 2.911423026786784 0.8881961773296007 0.0 0.09091066833263341 1.237566935987124 0.0 0.08482990758402706 1.617977255194464 0.0 2.72188011843547 1.908475821384775 0.0 0.09511693340438578 0.1978564296739337 0.0 0.08532302971687626 1.807636898634051 0.0 2.801578525482813 0.09621649206677658 0.0 2.917293969323222 1.813407021086289 0.0 1.593954393205754 0.08660252262737723 0.0 1.679935659240473 0.1732050815482173 0.0 1.780329556611408 0.1732050814448017 0.0 1.764177796512765 0.2598076219503237 0.0 1.866539583048746 0.2598076376984077 0.0 1.860707721623969 0.3464101891332573 0.0 1.962614997019799 0.3464105277319777 0.0 1.871785863123072 0.4330129190195735 0.0 1.770036828637305 0.4330127537059272 0.0 1.785754838093064 0.5196153621363208 0.0 1.683128741013998 0.5196152788143287 0.0 1.689093409826721 0.6062178139143534 0.0 1.587075444692277 0.6062178093963839 0.0 1.676759325434225 0.6928203373439897 0.0 1.575182006830758 0.6928203299474281 0.0 1.778630274716733 0.6928204804325525 0.0 1.756609827006634 0.7794229792546259 0.0 1.85974052551251 0.7794253414822719 0.0 1.83725774958979 0.86602601279268 0.0 1.939225749440694 0.8660244493507584 0.0 1.817634469400643 0.9526267712440601 0.0 1.918978703367391 0.9526087233010038 0.0 1.715957874668539 0.9526278385465862 0.0 2.040309644347523 0.8660283572000532 0.0 2.019790913009041 0.9525279703401024 0.0 1.800219683566379 1.039227036537058 0.0 1.699755494626945 1.039230043042212 0.0 2.14231583842208 0.8661843084416981 0.0 2.121457538430564 0.9524242397074281 0.0 2.103107446923644 1.03890490924434 0.0 1.787462230561897 1.125835112529591 0.0 1.68725264045906 1.125834804514111 0.0 2.206434250153436 1.038911410983534 0.0 2.191906129344768 1.125477896764436 0.0 2.24692622484053 0.8665932492419115 0.0 1.679731563883253 1.212456086226956 0.0 1.578994940538306 1.212444824707458 0.0 1.587327373658937 1.125835889764847 0.0 1.478477591812616 1.212439189548492 0.0 1.48755677163832 1.125834553198058 0.0 1.378217195894995 1.212439042919213 0.0 1.387888322585185 1.125833978166685 0.0 1.278183802331055 1.212442050903126 0.0 1.287902909884395 1.125834091653568 0.0 1.178593555802109 1.212446847969054 0.0 1.188025957635107 1.12583557415716 0.0 1.079559418624455 1.212482685314088 0.0 1.08854260781626 1.125846673996894 0.0 1.101487517734406 1.039232408212399 0.0 1.001244246524529 1.039227836002044 0.0 0.9887267295024879 1.125858000446982 0.0 1.016911557426241 0.9526110249359208 0.0 0.9172101661654649 0.9525005320389324 0.0 1.036540511830879 0.8659381576599677 0.0 0.9375248888115357 0.8655783360829683 0.0 2.297460030447617 1.125573147264007 0.0 0.9617058956958018 0.7782762590465633 0.0 0.8600976980143739 0.7750215979646164 0.0 0.8379631124423516 0.8645214325947811 0.0 0.7555542173369135 0.7716434223666317 0.0 2.183771455729507 1.211883606948376 0.0 1.485653131500337 0.6062179284985312 0.0 0.737085857852837 0.8631676199135327 0.0 2.288154967763189 1.211407374912956 0.0 1.475348630244877 1.29905080995768 0.0 1.175632626008234 1.299149467170964 0.0 2.283733326381759 1.298000677630736 0.0 0.7724361853454601 0.6620936693543591 0.0 0.65003294371692 0.6808523450822213 0.0 2.388961135925718 1.297929333495963 0.0 1.973223106803098 0.4330148894002694 0.0 2.180722293014568 1.2986219640549 0.0 1.061103593791282 0.7791265415522257 0.0 0.7226382611867618 0.5702754288594786 0.0 0.6281857407909557 0.5914751203572078 0.0 2.182322549460344 1.385711594293305 0.0 2.079770565988321 1.386562808833177 0.0 1.474721829487872 0.6928203375071249 0.0 1.385388895107449 0.6062196060849142 0.0 2.193920671458825 1.473611287267222 0.0 2.09081586027924 1.477098427022584 0.0 0.8312523385192447 0.6006212745198523 0.0 1.076312483797179 1.299274642760737 0.0 1.076104356594269 1.386596479620744 0.0 0.9759294233642397 1.387294307736879 0.0 1.079421990417698 1.475225055616963 0.0 0.9801772149332364 1.477437046794712 0.0 1.178445619657462 1.473680565197195 0.0 0.8754377607393254 1.387816751642386 0.0 0.8800666401432192 1.478854593104558 0.0 0.7744274372404542 1.387693063057973 0.0 0.7770582202580202 1.478285074395922 0.0 0.6733070120013632 1.387122610923813 0.0 0.6719566253846772 1.476258883429484 0.0 0.5727821353635776 1.386479261580486 0.0 0.5692557748441788 1.474217230429058 0.0 0.4731068939900255 1.385585774009776 0.0 0.5741290754613749 1.29927425506553 0.0 0.8064596877122487 0.5436000396578274 0.0 0.8918490896355228 0.5274219716305777 0.0 1.664426247520522 0.2598076285951861 0.0 2.166537697557194 0.7799909398052524 0.0 2.269895023878069 0.7807130808920512 0.0 1.117097812538043 0.9526181783161638 0.0 2.296606359645319 1.472355959712881 0.0 0.5508936694509894 0.6889463340081121 0.0 0.5281156532987796 0.604987386468894 0.0 0.4806084478717185 0.6958262784281289 0.0 1.676958480563695 1.29915643797671 0.0 2.186167078866817 0.6933722521888129 0.0 2.287579797399477 0.6939331058975683 0.0 2.373722872687452 0.7809174461433791 0.0 2.388848360529414 0.6939985796603562 0.0 2.292074864499151 0.6067681255426752 0.0 2.391180607924897 0.6068311918157557 0.0 2.477164500379934 0.7807580277097205 0.0 2.380512264902749 0.5198247918559948 0.0 2.479982872416054 0.5194951517478867 0.0 0.5999279210302499 0.5048412273322291 0.0 0.499451979751908 0.5111933288058056 0.0 0.4693209023669608 1.472535553612385 0.0 0.6597767667790401 1.567602040560092 0.0 2.490373539733423 0.6066708799317566 0.0 0.4745092560655639 1.298638196369904 0.0 0.4776304277168136 1.210993756941855 0.0 0.5783867093634167 1.211830172756679 0.0 0.5925116505341139 0.4198608169184985 0.0 0.4737903916843668 0.3957595946224808 0.0 1.375149575925623 0.6928208318785475 0.0 1.285636798805721 0.6062336647559552 0.0 1.376189956857295 0.5196189865693278 0.0 1.277288622866017 0.5196432527826346 0.0 2.464235563860101 0.432838926041631 0.0 2.366518609402227 0.4330555458039822 0.0 2.564131362031116 0.431519199133047 0.0 0.4595709612075695 1.559401222251276 0.0 0.9893553046456451 1.571231778930991 0.0 2.218023436100539 1.562325582907852 0.0 2.318604351752203 1.56002121850899 0.0 0.3782740721847372 1.207820436865198 0.0 0.4863715769719841 1.120556921797469 0.0 1.362
[...]
POINT_DATA 748
FIELD FieldData 1
Displacements_FEM 3 748 float
6.30737777100876e-05 0.0 0.0 0.0003881068842019886 -0.0008186510531231761 0.0 0.0 0.0 0.0 0.0 0.0 0.0 -4.9491500249132514e-05 -0.0001167085429187864 0.0 -7.381347677437589e-05 -0.0001839034812292084 0.0 -7.93198705650866e-05 -0.00022656303190160543 0.0 -7.680723501835018e-05 -0.00025700280093587935 0.0 -7.091228326316923e-05 -0.00028104573721066117 0.0 -6.264869443839416e-05 -0.00030157662695273757 0.0 -5.288184911478311e-05 -0.0003198067133780569 0.0 -4.188105231150985e-05 -0.0003369384503457695 0.0 -2.9903925678809173e-05 -0.0003534601128194481 0.0 -1.696968320175074e-05 -0.000369768327800557 0.0 -3.187187758157961e-06 -0.00038647360634058714 0.0 1.1595692740229424e-05 -0.000404081103624776 0.0 2.7596377549343742e-05 -0.00042318328632973135 0.0 4.5190725359134376e-05 -0.0004444793739821762 0.0 6.461278098868206e-05 -0.00046920005115680397 0.0 8.789575076662004e-05 -0.000499672198202461 0.0 0.0001141505636041984 -0.0005373512394726276 0.0 0.00015338997764047235 -0.0005885220016352832 0.0 0.00021406983432825655 -0.0006729700253345072 0.0 0.00033168456866405904 -0.000540462089702487 0.0 0.00028549626586027443 -0.0004527278651949018 0.0 0.00025212837499566376 -0.0003945586213376373 0.0 0.00022830515808891505 -0.0003533713461365551 0.0 0.00020976898667868227 -0.00032084499252960086 0.0 0.00019487171084620059 -0.00029388745315372944 0.0 0.0001825515937525779 -0.0002706969389691949 0.0 0.00017227466742042452 -0.00025018167798407376 0.0 0.00016365584451705217 -0.00023161973513197154 0.0 0.00015585873916279525 -0.0002143957099178806 0.0 0.00014916231157258153 -0.00019851406977977604 0.0 0.0001432799908798188 -0.00018343898409511894 0.0 0.00013802602188661695 -0.00016902206698432565 0.0 0.00013323588063940406 -0.00015511269157286733 0.0 0.0001287949999095872 -0.00014162356092128903 0.0 0.00012459700519684702 -0.0001284860773012042 0.0 0.0001205532971653156 -0.00011565480235731229 0.0 0.00011658915173029527 -0.00010310170910088345 0.0 0.00011263222404522821 -9.080424933927134e-05 0.0 0.00010861093323910609 -7.876415475038812e-05 0.0 0.0001044153468683362 -6.691768066957593e-05 0.0 0.00010010194091591984 -5.5444124882342294e-05 0.0 9.541269537294284e-05 -4.415950388647616e-05 0.0 9.024334576679394e-05 -3.317480513942428e-05 0.0 8.435991912847385e-05 -2.2536843971465714e-05 0.0 7.737992564216256e-05 -1.2349451026238967e-05 0.0 6.859807763248682e-05 -2.8607057629415067e-06 0.0 5.647955185850151e-05 5.428326858236687e-06 0.0 3.6729787098011e-05 9.66672450886108e-06 0.0 5.0346516218269244e-05 1.9507372144289548e-06 0.0 5.614367182715796e-05 7.46965952203027e-06 0.0 5.5670923757134005e-05 1.2090952623111662e-05 0.0 5.115624298923649e-05 1.5263618479366414e-05 0.0 4.470317071536556e-05 1.7609692804398946e-05 0.0 3.7010599044151604e-05 1.9335560864419676e-05 0.0 2.8516386009869166e-05 2.0573625079123303e-05 0.0 1.9495098968036473e-05 2.1395886506070383e-05 0.0 1.014884855976561e-05 2.1833626306033693e-05 0.0 6.627841457884642e-07 2.191087151004467e-05 0.0 -8.839445399644319e-06 2.171161031583324e-05 0.0 -1.819452336349059e-05 2.1141115212230943e-05 0.0 -2.72129982477054e-05 2.020882129727397e-05 0.0 -3.5831675631925464e-05 1.889167288027238e-05 0.0 -4.351067036623135e-05 1.7176353139802814e-05 0.0 -5.0129703595303e-05 1.4819326679571532e-05 0.0 -5.482486812979914e-05 1.1634727343334816e-05 0.0 -5.542897270061076e-05 7.101708433765452e-06 0.0 -4.993488983018324e-05 1.6995436453726143e-06 0.0 -3.6770186852663755e-05 8.935799087339547e-06 0.0 -5.645801138598472e-05 4.446309048944386e-06 0.0 -6.86206403770484e-05 -4.085313776158728e-06 0.0 -7.734897371847183e-05 -1.3967125596536789e-05 0.0 -8.42557565192692e-05 -2.453115303069353e-05 0.0 -9.008820779854432e-05 -3.566102896002121e-05 0.0 -9.513920667814091e-05 -4.723967504105531e-05 0.0 -9.963770571630448e-05 -5.921354750171304e-05 0.0 -0.00010359565203543752 -7.151500904001296e-05 0.0 -0.00010728335473686457 -8.428069850197062e-05 0.0 -0.00011051650653826073 -9.736836364027113e-05 0.0 -0.00011335439194226637 -0.00011079775867983699 0.0 -0.00011577256373129785 -0.0001245443127118051 0.0 -0.00011772478319471702 -0.00013856738223694265 0.0 -0.00011914747301489115 -0.0001528212014818564 0.0 -0.0001199686448671855 -0.00016722003056202084 0.0 -0.00012009616330033168 -0.0001816792064346373 0.0 -0.00011942524724872783 -0.0001960524677997455 0.0 -0.00011783174704760313 -0.00021019337873440236 0.0 -0.00011517641542013735 -0.00022385302872862667 0.0 -0.00011129365884698927 -0.0002367770066484809 0.0 -0.00010599097004160285 -0.0002485633303876966 0.0 -9.903135651256889e-05 -0.0002587660274002701 0.0 -9.009963105199859e-05 -0.00026668666396290064 0.0 -7.87512690294534e-05 -0.00027144886553287506 0.0 -6.421403668355197e-05 -0.00027162907645106316 0.0 -4.5001226681051776e-05 -0.00026456074556335807 0.0 -1.8066146367345937e-05 -0.00024312206369359046 0.0 1.9508519471855834e-05 -0.00019822399190161377 0.0 0.0001298896095249802 -0.00018371417536400259 0.0 -9.714102634461597e-05 -8.420819358434528e-05 0.0 -0.00010718412522692233 -0.00015184229414444417 0.0 0.00010614712664391845 -0.00010389985254732892 0.0 -0.0001066989207174629 -0.00021008578187320381 0.0 2.9592977170977974e-06 1.1741977687051985e-05 0.0 -1.1403820280975197e-05 -0.0003693065373227 0.0 8.846965647535399e-05 -5.779220737167634e-05 0.0 0.00015534460544586182 -0.00025528535479679704 0.0 -3.231414666515775e-05 1.2862881703767926e-05 0.0 -9.277818753616884e-05 -0.00026038760552182794 0.0 -6.247420969884843e-05 -0.0003046623314730823 0.0 -8.369525312446058e-05 -4.1628110921010375e-05 0.0 3.9696908061159775e-05 1.2224889360368252e-05 0.0 3.217867197236046e-05 -0.00041736281127668917 0.0 0.00011713495041476563 -0.0001420937478542328 0.0 7.952174200909212e-05 -2.7861851776833646e-05 0.0 0.00018428669136483222 -0.0003256554191466421 0.0 -5.0683938752627e-05 1.010055530059617e-05 0.0 -7.018180622253567e-05 -0.0002752798900473863 0.0 9.558461169945076e-05 -0.0004887111717835069 0.0 -8.41714208945632e-05 -0.0002519547415431589 0.0 -6.893365934956819e-05 -1.0161276804865338e-05 0.0 6.808596663177013e-05 -7.537700184911955e-06 0.0 -1.8020711650024168e-05 1.354117466689786e-05 0.0 -0.00010825522622326389 -0.00018097905558533967 0.0 -0.00010178884258493781 -0.00023748658713884652 0.0 0.000138471121317707 -0.00021461294090840966 0.0 -0.0001040685165207833 -0.00012341733963694423 0.0 9.919460717355832e-05 -8.135321695590392e-05 0.0 -8.833971514832228e-05 -6.235392356757075e-05 0.0 -3.5839817428495735e-05 -0.0003407769254408777 0.0 2.3094053176464513e-05 1.3203441085352097e-05 0.0 5.264001083560288e-05 1.0804108569573145e-05 0.0 0.00020526598382275552 -0.00040036713471636176 0.0 -5.647086072713137e-05 9.649719686422031e-06 0.0 5.699918619939126e-05 1.008811523206532e-05 0.0 -5.5538341257488355e-05 -0.0002489240141585469 0.0 0.00014815331087447703 -0.0005386249395087361 0.0 -0.0001080006841220893 -0.000166179466759786 0.0 -9.751161269377917e-05 -0.00017866257985588163 0.0 -9.755379142006859e-05 -0.00019350954971741885 0.0 -8.806866389932111e-05 -0.00019093106675427407 0.0 -8.824058022582904e-05 -0.00020605421741493046 0.0 -7.995291525730863e-05 -0.00020480286912061274 0.0 -8.055219950620085e-05 -0.00021961002494208515 0.0 -7.216037920443341e-05 -0.0002057333622360602 0.0 -7.08336301613599e-05 -0.00019062843057326972 0.0 -6.281683454290032e-05 -0.00019202091789338738 0.0 -6.1033875681459904e-05 -0.00017668628424871713 0.0 -5.2533589041559026e-05 -0.00017646168998908252 0.0 -5.056164809502661e-05 -0.00016130103904288262 0.0 -4.350056769908406e-05 -0.00017336741439066827 0.0 -4.1398969187866896e-05 -0.0001583627745276317 0.0 -4.579226515488699e-05 -0.000188509511644952 0.0 -3.6304027162259445e-05 -0.00018383440328761935 0.0 -3.893435496138409e-05 -0.00019915727898478508 0.0 -2.8939170078956522e-05 -0.00019435964350122958 0.0 -3.178183033014648e-05 -0.00020957153174094856 0.0 -1.8398182874079794e-05 -0.0001899497292470187 0.0 -2.114145718223881e-05 -0.00020515457435976714 0.0 -1.5921856174827553e-05 -0.00017488132289145142 0.0 -3.4785109164658934e-05 -0.00022461598564404994 0.0 -2.4091308659990318e-05 -0.00022041691408958286 0.0 -7.295326668099733e-06 -0.00018587629892863333 0.0 -5.064585820946377e-06 -0.00017105198639910668 0.0 -3.7878722650930285e-05 -0.00023963740386534482 0.0 -2.7180425604456104e-05 -0.00023588915064465255 0.0 -1.562153011036571e-05 -0.00023231841623783112 0.0 4.3133895815117285e-06 -0.00018255019676871598 0.0 6.226171080925269e-06 -0.00016784881881903857 0.0 -1.8644404917722568e-05 -0.0002487696474418044 0.0 -6.137966465757927e-06 -0.0002462266420479864 0.0 -4.093020470463671e-05 -0.0002547288895584643 0.0 1.7942935301107354e-05 -0.00016549471183679998 0.0 1.913020787469577e-05 -0.00015119867748580873 0.0 7.813261618139222e-06 -0.00015353114577010274 0.0 2.00121558009414e-05 -0.00013728281192015857 0.0 9.092749678529799e-06 -0.00013955928443465382 0.0 2.062160820059944e-05 -0.00012373128265608102 0.0 1.0092428055941127e-05 -0.00012592239363584667 0.0 2.099622906825971e-05 -0.00011053504567826167 0.0 1.0848096280824393e-05 -0.0001125714770751074 0.0 2.117650001309812e-05 -9.773088822839782e-05 0.0 1.1392165106371976e-05 -9.958299779100344e-05 0.0 2.120899262081366e-05 -8.534940570825711e-05 0.0 1.1763370821427088e-05 -8.701725892024115e-05 0.0 2.381874310231069e-06 -8.92728494363837e-05 0.0 2.8989884413022082e-06 -7.686897879466414e-05 0.0 1.2002179573755711e-05 -7.481659849872813e-05 0.0 -6.176645911182277e-06 -7.936054316814989e-05 0.0 -5.573592716245912e-06 -6.730726454406977e-05 0.0 -1.5245965187205002e-05 -8.240027818828821e-05 0.0 -1.4458289115282241e-05 -7.020607881713659e-05 0.0 -8.962325409811456e-06 -0.00026433230959810317 0.0 -2.3399083147523925e-05 -7.363617623923346e-05 0.0 -2.2807522327639163e-05 -6.137273157946765e-05 0.0 -1.3884502550354227e-05 -5.8456029364606366e-05 0.0 -2.2380252630682662e-05 -4.9356513045495376e-05 0.0 7.23103221389465e-06 -0.0002445038699079305 0.0 -4.8706107918405905e-05 -0.00014639152504969388 0.0 -1.3468947145156562e-05 -4.711123256129213e-05 0.0 4.42832561020623e-06 -0.00026325532235205173 0.0 3.121305053355172e-05 -0.00013599629164673388 0.0 3.10992072627414e-05 -9.683636017143726e-05 0.0 1.9052467905567028e-05 -0.0002627193462103605 0.0 -3.2872518204385415e-05 -5.143376984051429e-05 0.0 -3.0188333767000586e-05 -3.7800855352543294e-05 0.0 1.655179039516952e-05 -0.00028398068388924 0.0 -7.345173071371391e-05 -0.00022045508376322687 0.0 2.1661897335434332e-05 -0.00024347967701032758 0.0 -2.4352610125788487e-05 -8.613122190581635e-05 0.0 -4.086686021764763e-05 -4.585436181514524e-05 0.0 -3.806687527685426e-05 -3.535706491675228e-05 0.0 3.730349999386817e-05 -0.0002431679895380512 0.0 3.926900899386965e-05 -0.00022498457110486925 0.0 -3.948806261178106e-05 -0.00014371289580594748 0.0 -4.696001633419655e-05 -0.00013189500896260142 0.0 5.431381578091532e-05 -0.0002447008737362921 0.0 5.607140337815508e-05 -0.00022603468096349388 0.0 -3.9297006878769025e-05 -5.854439586983062e-05 0.0 3.075687709497288e-05 -8.450198220089078e-05 0.0 4.04748716391623e-05 -8.416948548983783e-05 0.0 3.9683785871602595e-05 -7.21102551324293e-05 0.0 5.0486141844885424e-05 -8.444608101854101e-05 0.0 4.939588325214572e-05 -7.249396730912849e-05 0.0 5.15786450705491e-05 -9.666229743743315e-05 0.0 3.88516673410777e-05 -6.0376863984856755e-05 0.0 4.817495937459171e-05 -6.075344936107285e-05 0.0 3.79950251954142e-05 -4.9001733714248985e-05 0.0 4.676740354625508e-05 -4.9043290346162394e-05 0.0 3.7208814319455996e-05 -3.810705675277859e-05 0.0 4.5344499085331336e-05 -3.7594192690448835e-05 0.0 3.660002403194085e-05 -2.784404750855174e-05 0.0 4.4185941078467295e-05 -2.6977861125487834e-05 0.0 3.619828203227371e-05 -1.8313074178877287e-05 0.0 2.871412107197102e-05 -2.850197779480368e-05 0.0 -4.435564551386051e-05 -5.570025314227678e-05 0.0 -4.7135428758338094e-05 -6.618491897825152e-05 0.0 -8.754531882004812e-05 -0.00017606274923309684 0.0 -4.7761252062628046e-05 -0.00024365322315134108 0.0 -5.0702372391242534e-05 -0.0002576333936303854 0.0 -6.94067466611159e-06 -9.194533049594611e-05 0.0 5.249265086604282e-05 -0.0002651445975061506 0.0 -2.8975759050808847e-05 -2.7546906494535506e-05 0.0 -3.622387885116041e-05 -2.4969855076051317e-05 0.0 -2.8114493034081534e-05 -2.0725372451124713e-05 0.0 3.012034903804306e-05 -0.00016398989828303456 0.0 -5.662491821567528e-05 -0.00024685467360541224 0.0 -5.944403164903633e-05 -0.00025964819360524416 0.0 -5.33794445800595e-05 -0.0002707872772589326 0.0 -6.208290142240003e-05 -0.000271150900516659 0.0 -6.680561637040228e-05 -0.00026014389004558325 0.0 -6.937135913176462e-05 -0.0002703613427001983 0.0 -5.543461156776175e-05 -0.0002827995049301535 0.0 -7.503589586121961e-05 -0.00026892212918028235 0.0 -7.742967864032835e-05 -0.00027624162612482905 0.0 -4.5262877392815426e-05 -3.214663956896402e-05 0.0 -4.3875781557289883e-05 -2.1712483430746943e-05 0.0 4.340875238995068e-05 -1.7317919628112577e-05 0.0 5.3260926506482065e-05 -3.607934559113346e-05 0.0 -7.165210990933701e-05 -0.0002786299155559391 0.0 2.853537444025278e-05 -1.9025543224415742e-05 0.0 2.047706766461488e-05 -1.980965862458106e-05 0.0 2.0552810383378528e-05 -2.940792364825029e-05 0.0 -5.2211420552339405e-05 -3.123746137134731e-05 0.0 -5.237838195171207e-05 -1.853145113273058e-05 0.0 -3.77439173462335e-05 -0.00012945037451572716 0.0 -4.529924626694992e-05 -0.00011777367035392672 0.0 -5.5849865020718426e-05 -0.0001314834225922823 0.0 -5.419133594841696e-05 -0.00011742542847059667 0.0 -8.128199988277629e-05 -0.00027458768454380333 0.0 -7.92633363744244e-05 -0.00026776883169077337 0.0 -8.358018385479227e-05 -0.00027806145953945816 0.0 5.000209785066545e-05 -1.5756068023620173e-05 0.0 5.97005600866396e-05 -7.368648948613554e-05 0.0 7.300925062736496e-05 -0.00024876618408598006 0.0 7.181012188084424e-05 -0.000269526761258021 0.0 2.024885361606721e-05 -1.0903741895162966e-05 0.0 1.1925439139304217e-05 -2.1024463421781547e-05 0.0 -6.478513387264684e-05 -0.00013028977264184505 0.0 -6.313130143098533e-05 -0.00011638649448286742 0.0 -5.47771378478501e-05 -6.348520400933921e-05 0.0 -2.9944912967039272e-05 -0.00013953828602097929 0.0 1.643134055484552e-05 -0.00018017979164142162 0.0 -4.290437573217787e-05 -1.1579881174839102e-05 0.0 4.921070649288595e-05 -7.0796227191749495e-06 0.0 -8.100004924926907e-05 -0.00023370534472633153 0.0 -5.74403784412425e-05 -7.630269828950986e-05 0.0 -4.826951681025093e-06 -4.48632963525597e-05 0.0 -4.911438736598939e-05 -7.815806748112664e-05 0.0 -4.8290006816387177e-05 -0.00020370214770082384 0.0 -7.474039011867717e-05 -0.00023440428776666522 0.0 -8.136783435475081e-05 -0.0002467143058311194 0.0 -8.508111932314932e-05 -0.0002770197461359203 0.0 -8.70322110131383e-05 -0.0002750018029473722 0.0 -8.571243961341679e-05 -0.00027721773949451745 0.0 -5.9864367358386517e-05 -2.375861004111357e-05 0.0 -5.641509414999746e-05 -9.648966624808963e-06 0.0 -5.9364920161897317e-05 -3.3450847695348784e-05 0.0 2.8269585527596064e-05 -1.027490543492604e-05 0.0 5.58365136384964e-05 -1.394446189806331e-05 0.0 5.445413262350485e-05 -5.320997843227815e-06 0.0 1.1567299225134775e-05 -1.178770799015183e-05 0.0 9.996834933190257e-07 -1.2781276382156648e-05 0.0 9.364375000586733e-05 -0.0002541323483455926 0.0 9.360956028103828e-05 -0.000274824706139043 0.0 7.032004941720515e-05 -0.00029276232817210257 0.0 9.319220407633111e-05 -0.00029867884586565197 0.0 6.813574145780876e-05 -0.00031963674700818956 0.0 9.15884884307161e-05 -0.0003267208521720022 0.0 6.579533510375768e-05 -0.0003508750523906201 0.0 9.492515528108925e-05 -0.0002357040357310325 0.0 4.662805804400705e-05 -0.00034341172431595623 0.0 2.9650325814145617e-05 -0.0003380710550118238 0.0 8.870397141436115e-05 -0.00035979264066554606 0.0 3.2026869121182244e-06 -2.2935815650271252e-05 0.0 -5.5606215028092265e-06 -1.8228411136078648e-05 0.0 -7.26380676496774e-06 -8.305080882564653e-06 0.0 -7.413771527353674e-05 -0.0001304421020904556 0.0 -7.246394670801237e-05 -0.00011655147682176903 0.0 -3.614096567616798e-05 -0.0001155487188952975 0.0 -6.644154927926138e-05 -0.00014524432481266558 0.0 -3.268773753006826e-06 -0.00022949415142647922 0.0 -1.3766060874331743e-05 -0.0001602110714884475 0.0 -4.572599573293701e-05 -0.00028376022237353027 0.0 -6.64500257698819e-05 -7.558346260339022e-05 0.0 4.084367537871003e-05 -0.0002081264537991956 0.0 5.716493978979997e-05 -0.0002083062136080116 0.0 -2.320087446605612e-07 -0.00012878321285825223 0.0 0.00011761825589928776 -0.0002784037496894598 0.0 4.870992779615335e-05 1.9332426859364205e-07 0.0 -8.80996449268423e-05 -0.00027054542442783713 0.0 3.173225195496343e-05 -0.0003687081334646791 0.0 1.4382168046722654e-05 -0.000333346746629104 0.0 4.798975714948028e-05 -0.00037576601607725024 0.0 -8.763755613472313e-05 -0.0002718108589760959 0.0 -8.362517110072076e-05 -0.00027703004889190197 0.0 -1.2999566934013274e-05 -1.597752452653367e-05 0.0 -1.2073245670762844e-05 -5.690457328455523e-06 0.0 -6.865117029519752e-05 -8.92991156433709e-05 0.0 -5.256377698970027e-05 -0.0001040183415170759 0.0 -6.503215263364837e-05 -2.800699985527899e-05 0.0 -1.7312131603830494e-05 -8.07953347248258e-06 0.0 -8.239267481258139e-05 -0.00011844175605801865 0.0 -8.410740701947361e-05 -0.0001325903576798737 0.0 -6.355427467497066e-05 -6.187308463267982e-05 0.0 -8.104985317913815e-05 -0.00028210054733790457 0.0 2.9415385142783634e-05 -4.943258682033047e-05 0.0 -1.319854891335126e-05 -2.6457864805706777e-05 0.0 7.799357990734279e-05 -0.00020948401652276516 0.0 7.252344221342355e-05 -0.0001913338783197105 0.0 8.928761963034049e-05 -0.00020229598158039153 0.0 8.715131116332486e-05 -0.00019168721337337047 0.0 7.065723184496164e-05 -0.00017651902453508228 0.0 8.510808402206749e-05 -0.0001778365403879434 0.0 6.931998359505087e-05 -0.00016237649833783507 0.0 8.310895645990968e-05 -0.0001638652029214427 0.0 6.799487164244056e-05 -0.00014858874783385545 0.0 8.106745372060686e-05 -0.0001501501683378592 0.0 6.658344500465319e-05 -0.00013518109335564077 0.0 7.898770127212629e-05 -0.00013682123972103 0.0 6.511154788313434e-05 -0.00012226469698362052 0.0 7.691542123211548e-05 -0.00012391898781061172 0.0 9.731815953273326e-05 -0.00016635427891742438 0.0 8.907645678846166e-05 -0.0001262641599169001 0.0 -6.651909643551335e-05 -0.00022168377472553402 0.0 -5.625372432405129e-05 -0.0002935525553766638 0.0 -4.648371395887807e-05 -0.00029689856455661356 0.0 -3.5988225135952234e-05 -0.00029950239695608616 0.0 -5.517263343790546e-05 -0.0003034641267731786 0.0 -3.538569580996409e-05 -0.0003143044013995677 0.0 -2.44103794102557e-05 -0.00031914919964037836 0.0 -2.215497625002172e-05 -0.0003360670816618949 0.0 -8.048900781432167e-05 -0.00010475722956471145 0.0 -6.943291373318061e-05 -0.0001752684183884412 0.0 -6.846299220342189e-05 -0.0002353759336983785 0.0 -8.358016930287704e-05 -0.00027495139511302114 0.0 -5.372500163502991e-05 -0.000232943071750924 0.0 4.189666287857108e-05 -0.00019229736062698066 0.0 5.64150141144637e-05 -0.00017666074563749135 0.0 5.7861525419866666e-05 -2.357758603466209e-05 0.0 -8.745175728108734e-05 -0.00023504940327256918 0.0 -8.657450234750286e-05 -0.00024794560158625245 0.0 2.6150435587624088e-05 -0.00020912369654979557 0.0 5.5288674047915265e-05 -0.00014840935182292014 0.0 -7.657129754079506e-05 -7.775667472742498e-05 0.0 -6.658666097791865e-05 -3.5936798667535186e-05 0.0 8.649443770991638e-05 -0.00011360881035216153 0.0 7.49191312934272e-05 -0.00011134525993838906 0.0 8.41517758090049e-05 -0.00010149320587515831 0.0 -1.8622453353600577e-05 -1.130084910982987e-06 0.0 -2.6649546271073632e-05 -2.32172419600829e-06 0.0 -3.301243850728497e-05 -0.00032827610266394913 0.0 1.6674192011123523e-05 -0.0003609271952882409 0.0 6.40793950879015e-05 -2.2755235477234237e-05 0.0 6.703183316858485e-05 -3.2420066418126225e-05 0.0 0.00011571108916541561 -0.00024187406233977526 0.0 0.00010186585859628394 -0.00019402660836931318 0.0 0.00011978114343946