# vtk DataFile Version 4.2
written by meshio v4.0.10
ASCII
DATASET UNSTRUCTURED_GRID
POINTS 5 double
3.0 0.0 0.0 3.0 2.0 0.0 0.0 2.0 0.0 0.0 0.0 0.0 1.5 1.0 0.0
CELLS 4 16
3
0
1
4
3
2
3
4
3
3
0
4
3
1
2
4
CELL_TYPES 4
5
5
5
5
POINT_DATA 5
FIELD FieldData 1
Displacements_FEM 3 5 float
1.285760276914516e-06 0.0 0.0 4.056004763697274e-05 -0.0001115887935156934 0.0 0.0 0.0 0.0 0.0 0.0 0.0 -3.7235633953969227e-06 -2.439056697767228e-05 0.0
